ITEM: TIMESTEP
0
ITEM: NUMBER OF ATOMS
2622
ITEM: BOX BOUNDS pp pp pp
0.0000000000000000e+00 3.0524741071347300e+01
0.0000000000000000e+00 3.0524741071347300e+01
0.0000000000000000e+00 3.0524741071347300e+01
ITEM: ATOMS id element xu yu zu
1 Ca 32.1628 60.0767 42.4258
2 Ca 34.5307 7.88496 -30.8261
3 B 36.1672 5.03759 -30.9577
4 F 36.7772 6.2199 -30.9442
5 F 36.6953 4.40899 -29.877
6 F 36.3671 4.35982 -32.1179
7 F 34.7844 5.2481 -30.6961
8 B 32.4703 10.4982 -31.3862
9 F 32.8924 9.26193 -31.9795
10 F 32.8861 11.5864 -32.1223
11 F 33.054 10.336 -30.1259
12 F 31.0836 10.4681 -31.2358
13 B 32.4104 57.4049 40.6999
14 F 31.1098 57.9385 40.4634
15 F 32.7255 57.8799 41.9711
16 F 33.4255 57.7675 39.7265
17 F 32.5113 56.0126 40.6403
18 B 32.2192 63.0222 43.1159
19 F 31.1437 62.3062 42.7764
20 F 31.9998 63.7938 44.1945
21 F 32.5441 63.8172 42.0816
22 F 33.1836 62.1359 43.2356
23 O 25.0292 9.68952 2.68028
24 C 24.7403 11.011 3.23812
25 H 24.6049 11.7374 2.44196
26 H 25.4241 11.4232 3.97661
27 C 23.3421 10.8464 3.6828
28 H 22.7797 11.7922 3.64175
29 H 23.4455 10.5902 4.70476
30 C 22.6984 9.76199 2.89406
31 H 21.8233 10.0647 2.3746
32 H 22.3787 8.96293 3.50639
33 C 23.82 9.3217 2.00087
34 H 23.7822 9.8858 1.06738
35 H 23.7028 8.2196 1.85344
36 O -15.6126 -1.20547 5.00924
37 C -14.3311 -1.22024 5.63156
38 H -13.682 -1.93453 5.23242
39 H -14.4317 -1.35278 6.68924
40 C -13.933 0.108675 5.13809
41 H -12.8555 0.090326 5.12374
42 H -14.1366 0.76087 5.89713
43 C -14.4723 0.215069 3.74855
44 H -13.6769 0.218639 2.96747
45 H -14.8942 1.14191 3.6845
46 C -15.5179 -0.912688 3.59782
47 H -15.1652 -1.66885 3.00415
48 H -16.4029 -0.484596 3.12179
49 O 37.7253 -10.0391 -7.07415
50 C 37.5198 -9.86574 -5.70375
51 H 38.3498 -10.3439 -5.10737
52 H 36.5842 -10.3154 -5.35544
53 C 37.6223 -8.34828 -5.6102
54 H 38.6657 -7.96913 -5.35481
55 H 36.9902 -8.13447 -4.75274
56 C 37.084 -7.843 -6.91817
57 H 37.7142 -7.15145 -7.40569
58 H 36.1319 -7.44316 -6.93492
59 C 36.9033 -9.15149 -7.70404
60 H 37.2732 -8.98413 -8.71386
61 H 35.952 -9.62775 -7.65192
62 O 79.1586 -10.3725 36.1063
63 C 78.5057 -9.46484 36.9565
64 H 77.7999 -8.82732 36.4184
65 H 79.2235 -8.83968 37.4372
66 C 77.8869 -10.3576 37.9972
67 H 77.0631 -9.9035 38.464
68 H 78.6655 -10.8207 38.6663
69 C 77.5073 -11.5993 37.1167
70 H 76.4693 -11.7542 37.2207
71 H 77.9784 -12.4636 37.5241
72 C 78.1817 -11.3468 35.8095
73 H 77.5285 -10.8681 35.1347
74 H 78.5232 -12.2997 35.3166
75 O 2.94709 14.4337 79.9803
76 C 2.51669 15.753 80.0578
77 H 3.37429 16.2838 80.4332
78 H 1.76731 15.9272 80.8726
79 C 2.13784 16.0793 78.6428
80 H 2.42022 17.106 78.4215
81 H 1.02289 16.1099 78.4672
82 C 2.82993 15.0009 77.7903
83 H 3.2878 15.5451 76.9268
84 H 2.0649 14.4116 77.4197
85 C 3.75888 14.307 78.8022
86 H 4.75686 14.8261 79.0177
87 H 3.97424 13.2091 78.6554
88 O -26.0274 -11.6014 64.0483
89 C -27.3381 -11.9453 64.5492
90 H -27.6259 -11.3947 65.4212
91 H -27.3921 -13.0486 64.6987
92 C -28.173 -11.4917 63.4123
93 H -29.2753 -11.4024 63.5885
94 H -28.0516 -12.1152 62.5222
95 C -27.5828 -10.1441 63.0292
96 H -28.1944 -9.34525 63.3676
97 H -27.4357 -9.92405 61.9553
98 C -26.2064 -10.1727 63.7505
99 H -26.0995 -9.49496 64.6625
100 H -25.4376 -9.82111 63.0213
101 O 44.0648 35.5533 10.6891
102 C 44.8272 34.7009 9.89615
103 H 45.8676 34.9531 9.8461
104 H 44.4443 34.6014 8.87772
105 C 44.6436 33.4372 10.728
106 H 45.6442 32.9636 10.5257
107 H 43.8509 32.852 10.2319
108 C 44.4811 33.7612 12.1372
109 H 45.2741 33.4489 12.8398
110 H 43.5147 33.3821 12.5554
111 C 44.395 35.3033 12.0485
112 H 45.3536 35.6823 12.1173
113 H 43.7411 35.7851 12.7766
114 O 16.1251 18.3406 11.6154
115 C 17.3797 18.3597 12.2866
116 H 17.8129 19.3627 12.1318
117 H 18.1554 17.6784 11.912
118 C 16.9201 18.1019 13.7524
119 H 16.809 19.0563 14.1929
120 H 17.5201 17.4584 14.3261
121 C 15.5174 17.4526 13.6952
122 H 14.6835 18.0995 13.9981
123 H 15.3451 16.5488 14.2396
124 C 15.46 17.2741 12.2032
125 H 14.4945 17.1395 11.6845
126 H 15.8831 16.3622 11.9198
127 O 61.519 -8.20851 -37.403
128 C 61.876 -9.48559 -36.9518
129 H 62.7259 -9.86808 -37.4023
130 H 61.0855 -10.2154 -37.0828
131 C 61.7381 -9.20058 -35.4318
132 H 62.6699 -8.77804 -35.0556
133 H 61.493 -10.0803 -34.865
134 C 60.6632 -8.16294 -35.3402
135 H 61.0844 -7.29792 -34.7829
136 H 59.7948 -8.46064 -34.7581
137 C 60.3233 -7.83425 -36.7462
138 H 60.0569 -6.78433 -36.8911
139 H 59.514 -8.50279 -36.9727
140 O 11.7007 11.8795 36.5568
141 C 12.3971 11.5684 37.8082
142 H 11.8954 10.7265 38.2971
143 H 12.5795 12.3979 38.5121
144 C 13.7107 10.9938 37.203
145 H 13.6943 9.92773 36.9706
146 H 14.4502 11.1731 37.9441
147 C 13.9432 11.6713 35.8141
148 H 13.9285 10.8911 35.0406
149 H 14.92 12.2522 35.755
150 C 12.7122 12.5187 35.7319
151 H 12.3913 12.713 34.7239
152 H 12.8086 13.4016 36.2412
153 O 8.90197 -37.5195 20.0742
154 C 10.102 -36.7977 20.0238
155 H 10.4273 -36.499 21.1129
156 H 9.92146 -35.8383 19.5893
157 C 11.1889 -37.6446 19.3901
158 H 12.1961 -37.3472 19.7702
159 H 11.1901 -37.7612 18.3116
160 C 10.7477 -38.9763 19.8934
161 H 11.4951 -39.4885 20.4728
162 H 10.5181 -39.5663 19.0226
163 C 9.41832 -38.7537 20.5935
164 H 9.63963 -38.7048 21.6283
165 H 8.66283 -39.4955 20.4996
166 O 22.452 -61.6522 70.9665
167 C 22.977 -61.8757 72.2603
168 H 22.318 -61.5225 73.057
169 H 23.9222 -61.3615 72.4362
170 C 23.1479 -63.3919 72.3701
171 H 22.4107 -63.7769 73.1309
172 H 24.1405 -63.6306 72.7657
173 C 22.9111 -63.853 70.9947
174 H 21.8568 -64.1309 70.8807
175 H 23.5088 -64.6882 70.6157
176 C 23.155 -62.617 70.187
177 H 22.5762 -62.673 69.2245
178 H 24.2 -62.4008 70.002
179 O 34.1672 6.89668 -33.2794
180 C 32.8053 6.83197 -33.7263
181 H 32.0814 7.15885 -33.0602
182 H 32.5317 5.86526 -34.0195
183 C 32.8642 7.7634 -34.9126
184 H 32.6059 8.77395 -34.7236
185 H 32.2129 7.41114 -35.7207
186 C 34.2875 7.68175 -35.3815
187 H 34.6594 8.67785 -35.2196
188 H 34.3847 7.29857 -36.3957
189 C 34.9364 6.71975 -34.3982
190 H 35.9871 6.74774 -34.2007
191 H 34.8237 5.61069 -34.7482
192 O 85.9554 36.8199 27.4064
193 C 84.612 36.5437 27.4742
194 H 84.1637 36.3929 26.4948
195 H 83.9722 37.3591 27.8294
196 C 84.4892 35.2587 28.1882
197 H 83.6065 34.6162 28.1736
198 H 84.4949 35.475 29.2738
199 C 85.8202 34.6024 27.784
200 H 85.5876 33.734 27.198
201 H 86.5811 34.3077 28.5253
202 C 86.5381 35.6301 26.9067
203 H 86.3501 35.532 25.8185
204 H 87.5146 35.4818 27.0185
205 O -4.77274 -5.8091 2.60687
206 C -4.17655 -4.67204 2.02509
207 H -3.56354 -4.97972 1.13674
208 H -3.6657 -4.01907 2.67405
209 C -5.46934 -3.97379 1.47127
210 H -5.34198 -3.31652 0.580308
211 H -6.03478 -3.34712 2.24731
212 C -6.42902 -5.06468 1.04887
213 H -6.67792 -4.94855 -0.0858215
214 H -7.35675 -4.93538 1.52553
215 C -5.68243 -6.28454 1.53719
216 H -5.05006 -6.91073 0.848105
217 H -6.3417 -7.05431 1.99001
218 O -25.0179 65.889 53.5184
219 C -24.9583 65.7802 52.1393
220 H -23.9325 65.6295 51.7153
221 H -25.3986 66.6052 51.6589
222 C -25.6775 64.434 51.7762
223 H -24.9626 63.6636 51.7016
224 H -26.186 64.3771 50.8456
225 C -26.6155 64.3494 52.9791
226 H -26.4335 63.4733 53.615
227 H -27.5895 64.3576 52.5351
228 C -26.2693 65.5294 53.9647
229 H -26.1491 65.1223 54.9988
230 H -26.8937 66.4635 53.969
231 O 39.6119 -44.4897 25.6984
232 C 39.3684 -45.7684 25.229
233 H 38.3 -46.0842 25.0769
234 H 39.9845 -46.4363 25.8425
235 C 39.9224 -45.6548 23.8422
236 H 39.3157 -46.3207 23.242
237 H 40.9742 -45.9339 23.9317
238 C 39.8487 -44.1483 23.4922
239 H 39.2969 -44.0737 22.5134
240 H 40.8391 -43.6618 23.3702
241 C 39.2615 -43.4819 24.6918
242 H 38.1775 -43.3628 24.5892
243 H 39.719 -42.4907 24.8563
244 O 14.0764 -58.5586 1.47689
245 C 13.0301 -57.5258 1.29059
246 H 12.0327 -57.9185 1.58003
247 H 12.8651 -57.0606 0.353364
248 C 13.6149 -56.5635 2.25592
249 H 13.2523 -56.5028 3.28382
250 H 13.4095 -55.6215 1.84092
251 C 15.1406 -56.8636 2.21359
252 H 15.4992 -57.028 3.1902
253 H 15.791 -56.0792 1.74539
254 C 15.367 -58.1251 1.4172
255 H 16.144 -58.8666 1.76797
256 H 15.6986 -57.8144 0.404924
257 O 107.424 25.7526 47.9288
258 C 107.602 24.3622 47.6614
259 H 107.497 24.0914 46.6315
260 H 106.895 23.7465 48.175
261 C 108.964 24.0776 48.0576
262 H 109.457 23.3642 47.3752
263 H 109.015 23.576 49.0377
264 C 109.659 25.4511 47.9245
265 H 110.511 25.4085 47.2779
266 H 109.929 25.8997 48.9461
267 C 108.556 26.3581 47.3268
268 H 108.538 26.1932 46.2201
269 H 108.629 27.447 47.5567
270 O 42.7281 -3.70631 -41.6532
271 C 43.0266 -3.89574 -43.0364
272 H 43.4348 -4.90226 -43.4768
273 H 43.8381 -3.20213 -43.2442
274 C 41.739 -3.52352 -43.6999
275 H 41.0901 -4.36336 -43.5687
276 H 41.8508 -3.36177 -44.7907
277 C 41.1185 -2.4143 -42.879
278 H 40.1103 -2.68685 -42.5477
279 H 41.0391 -1.49488 -43.41
280 C 41.9603 -2.44902 -41.5168
281 H 41.2886 -2.59267 -40.6268
282 H 42.658 -1.68242 -41.483
283 O 2.5038 17.3127 83.3734
284 C 2.04939 17.4135 84.713
285 H 1.49332 16.4784 84.9582
286 H 1.52823 18.278 84.9203
287 C 3.4149 17.4761 85.5076
288 H 3.41002 16.8692 86.344
289 H 3.58854 18.4816 85.8978
290 C 4.5136 17.186 84.5032
291 H 5.20298 16.4324 84.9828
292 H 4.89958 18.2096 84.3335
293 C 3.74789 16.6839 83.2986
294 H 3.59741 15.583 83.376
295 H 4.21844 16.9082 82.2951
296 O 92.5708 -47.917 115.829
297 C 92.4516 -47.4034 114.493
298 H 93.3778 -47.2968 114.008
299 H 91.9644 -46.4027 114.579
300 C 91.5269 -48.3729 113.936
301 H 91.5992 -48.4126 112.85
302 H 90.4811 -48.1294 114.04
303 C 91.8654 -49.6815 114.766
304 H 92.2224 -50.4055 113.958
305 H 90.9777 -50.0245 115.322
306 C 92.912 -49.2323 115.762
307 H 93.9442 -49.338 115.317
308 H 92.8374 -49.6385 116.729
309 O -1.75261 47.9488 43.8367
310 C -1.58892 49.3068 44.1538
311 H -2.49514 49.8476 44.3114
312 H -1.15608 49.7914 43.2857
313 C -0.589713 49.2016 45.3195
314 H -0.75421 49.9619 46.0623
315 H 0.497926 49.1901 45.1149
316 C -1.02936 47.922 46.0405
317 H -1.50684 48.1497 47.008
318 H -0.2089 47.2091 46.2635
319 C -2.08639 47.2708 45.0788
320 H -3.07004 47.6138 45.3895
321 H -2.02145 46.1456 44.9588
322 O -29.1789 -19.8197 47.9103
323 C -29.8874 -18.7294 48.5276
324 H -29.1278 -17.9664 49.0415
325 H -30.6264 -19.1172 49.218
326 C -30.749 -18.2439 47.3575
327 H -30.1412 -17.4208 46.9001
328 H -31.6445 -17.8707 47.8316
329 C -30.9617 -19.4778 46.5275
330 H -30.4743 -19.3249 45.5495
331 H -32.0248 -19.7358 46.4247
332 C -30.1668 -20.5659 47.2063
333 H -29.7001 -21.3598 46.611
334 H -30.8314 -21.0839 47.9177
335 O 29.6885 -2.32611 94.3714
336 C 30.1957 -3.68184 94.4108
337 H 30.6059 -3.82078 93.4343
338 H 29.4782 -4.41897 94.6636
339 C 31.1816 -3.69137 95.6066
340 H 32.0222 -4.35882 95.6142
341 H 30.5978 -4.02668 96.4501
342 C 31.6224 -2.22443 95.5939
343 H 32.7156 -2.00084 95.6045
344 H 31.349 -1.83082 96.5263
345 C 30.8033 -1.4882 94.5076
346 H 31.3678 -1.43299 93.5728
347 H 30.5057 -0.493106 94.853
348 O 60.583 -9.93095 -42.6387
349 C 61.5899 -10.916 -42.7066
350 H 62.091 -10.5712 -43.6229
351 H 61.2187 -11.9873 -42.8184
352 C 62.3639 -10.653 -41.4061
353 H 63.1184 -9.96917 -41.6891
354 H 62.8038 -11.5937 -40.9982
355 C 61.2904 -10.1927 -40.445
356 H 61.4833 -9.21537 -40.0457
357 H 61.2237 -10.7562 -39.5352
358 C 60.0786 -10.0638 -41.3193
359 H 59.3814 -9.18131 -41.0354
360 H 59.4828 -11.0271 -41.2661
361 O -15.1016 53.8783 3.17494
362 C -16.0374 53.8455 2.11348
363 H -15.7286 53.2573 1.24894
364 H -16.3224 54.8644 1.79859
365 C -17.3138 53.1723 2.69088
366 H -17.1635 52.1107 2.60445
367 H -18.2347 53.4572 2.17074
368 C -17.3062 53.623 4.12213
369 H -17.5918 52.7768 4.70126
370 H -18.1083 54.3736 4.27912
371 C -15.9001 54.1955 4.35353
372 H -15.3951 53.8316 5.26464
373 H -15.9939 55.2579 4.33701
374 O -3.66917 -37.7338 52.0922
375 C -4.55765 -37.7612 51.0006
376 H -5.21935 -36.9172 51.0331
377 H -5.19766 -38.6755 50.9148
378 C -3.67249 -37.6401 49.8371
379 H -4.23035 -37.2157 48.9907
380 H -3.14484 -38.5573 49.7721
381 C -2.61261 -36.652 50.4501
382 H -2.66468 -35.6314 50.1494
383 H -1.59312 -37.0317 50.3105
384 C -2.8729 -36.6251 51.94
385 H -3.44565 -35.7096 52.1283
386 H -1.93493 -36.5653 52.5588
387 O 66.9607 -21.4452 -61.936
388 C 66.9082 -20.295 -61.1642
389 H 66.3079 -20.1627 -60.2586
390 H 66.4582 -19.5184 -61.8056
391 C 68.4827 -20.1139 -60.9249
392 H 68.5949 -20.6437 -59.9782
393 H 68.6935 -19.0749 -60.7905
394 C 69.1266 -20.8194 -62.0915
395 H 69.7949 -21.6404 -61.8497
396 H 69.7763 -20.1441 -62.6519
397 C 67.9562 -21.2599 -62.8967
398 H 68.174 -22.1989 -63.4407
399 H 67.6069 -20.5375 -63.6888
400 O -7.2443 31.0407 142.952
401 C -8.26641 30.0375 143.243
402 H -8.91282 30.3871 144.092
403 H -7.82119 29.1245 143.534
404 C -9.11568 29.9977 142.037
405 H -10.081 30.2889 142.34
406 H -9.29011 28.9946 141.645
407 C -8.56929 31.0622 141.106
408 H -9.37886 31.5766 140.626
409 H -7.91479 30.5291 140.383
410 C -7.90944 31.9939 142.135
411 H -8.63919 32.4935 142.726
412 H -7.25044 32.6707 141.709
413 O 54.1531 -46.0912 -29.8229
414 C 54.1934 -45.3552 -28.56
415 H 53.8858 -44.3285 -28.6886
416 H 55.1854 -45.4217 -28.1538
417 C 53.13 -45.9987 -27.6238
418 H 52.5691 -45.1388 -27.1273
419 H 53.6598 -46.5506 -26.8481
420 C 52.3344 -46.8575 -28.657
421 H 51.189 -46.7789 -28.5645
422 H 52.6705 -47.9067 -28.6378
423 C 52.7733 -46.2232 -30.0067
424 H 52.3249 -45.3216 -30.289
425 H 52.4962 -46.9402 -30.8208
426 O 34.9703 38.9358 21.8783
427 C 34.0911 40.0285 21.9341
428 H 33.8893 40.2665 22.9461
429 H 33.14 39.702 21.4863
430 C 34.9016 41.1189 21.3023
431 H 34.4997 42.145 21.4805
432 H 34.8694 40.9768 20.18
433 C 36.2443 40.8821 21.8787
434 H 36.3501 41.5849 22.6806
435 H 36.9835 41.0936 21.1248
436 C 36.2161 39.4091 22.3879
437 H 36.1564 39.4671 23.4464
438 H 37.0473 38.8444 21.9765
439 O 20.5592 37.9823 39.2182
440 C 19.9434 38.4983 38.0601
441 H 19.1821 37.8958 37.6212
442 H 20.6815 38.597 37.3525
443 C 19.4241 39.8664 38.5537
444 H 18.3682 39.9091 38.8595
445 H 19.6053 40.5207 37.6598
446 C 20.2287 40.1962 39.8788
447 H 19.5488 40.1154 40.7146
448 H 20.6912 41.2192 39.7906
449 C 21.2495 39.0776 39.7408
450 H 21.6298 38.9441 40.8054
451 H 22.1062 39.3738 39.1798
452 O 94.7171 11.1747 36.8101
453 C 95.3154 11.4738 38.0462
454 H 95.6647 10.671 38.6304
455 H 94.5567 12.0264 38.5639
456 C 96.5187 12.3894 37.6426
457 H 97.4551 11.7628 37.6495
458 H 96.5373 13.2528 38.3885
459 C 96.1889 12.8356 36.2189
460 H 96.8211 12.454 35.4507
461 H 96.2038 13.8826 36.2131
462 C 94.6952 12.3538 36.1006
463 H 94.6119 12.0595 35.0848
464 H 93.9643 13.0536 36.4883
465 O -23.8014 13.6945 -77.4975
466 C -23.4363 13.2764 -78.7987
467 H -22.5942 12.6309 -78.6879
468 H -23.1608 14.1831 -79.3927
469 C -24.6896 12.6547 -79.4074
470 H -24.3928 11.9652 -80.2895
471 H -25.2703 13.5071 -79.7554
472 C -25.4404 12.2122 -78.1705
473 H -25.6444 11.109 -78.2952
474 H -26.3866 12.7066 -78.1407
475 C -24.6377 12.6991 -76.9942
476 H -23.9949 11.8789 -76.6338
477 H -25.2664 13.1518 -76.177
478 O 45.7293 76.11 21.349
479 C 45.645 74.7529 21.2623
480 H 44.7835 74.3891 21.819
481 H 46.562 74.3871 21.6698
482 C 45.5042 74.5207 19.7992
483 H 44.8163 73.6709 19.652
484 H 46.4478 74.3075 19.2729
485 C 44.8638 75.8415 19.3018
486 H 44.0569 75.6604 18.6861
487 H 45.6365 76.3689 18.6986
488 C 44.6469 76.5962 20.5713
489 H 43.7388 76.3141 21.1106
490 H 44.5627 77.6782 20.3725
491 O -2.43568 -35.988 41.9093
492 C -1.92005 -36.9694 41.0265
493 H -1.24995 -37.6767 41.4495
494 H -1.47768 -36.5543 40.1489
495 C -3.24181 -37.6279 40.765
496 H -3.41716 -38.0174 41.7016
497 H -3.33989 -38.5618 40.0691
498 C -4.19762 -36.4864 40.5618
499 H -5.13574 -36.8057 40.9644
500 H -4.32152 -36.2354 39.5737
501 C -3.48344 -35.3437 41.19
502 H -4.09843 -34.82 41.9234
503 H -3.03989 -34.656 40.4901
504 O 9.28828 67.663 55.4015
505 C 8.39124 67.1652 54.4282
506 H 7.42364 67.6566 54.6301
507 H 8.29506 66.0636 54.3435
508 C 9.10923 67.6579 53.1787
509 H 9.00408 68.6964 53.0142
510 H 8.61597 67.1883 52.2662
511 C 10.546 67.306 53.4725
512 H 11.3436 67.9962 53.1696
513 H 10.7627 66.4461 52.9723
514 C 10.5956 67.1144 54.9614
515 H 11.4243 67.5668 55.5298
516 H 10.5957 66.0493 55.2808
517 O -3.47126 32.3463 39.1774
518 C -3.86704 33.5994 38.6465
519 H -2.91699 34.1237 38.3363
520 H -4.44524 34.1846 39.3426
521 C -4.72959 33.1079 37.5104
522 H -4.05019 32.8958 36.6305
523 H -5.49408 33.8871 37.2397
524 C -5.36897 31.8415 38.069
525 H -5.18941 30.9696 37.526
526 H -6.42204 31.8597 38.1381
527 C -4.721 31.7805 39.4645
528 H -4.49724 30.7264 39.81
529 H -5.3911 32.3249 40.1709
530 O 31.3389 45.851 11.9069
531 C 30.801 46.056 10.6105
532 H 30.602 47.0297 10.225
533 H 29.806 45.4872 10.4752
534 C 31.8905 45.2957 9.75814
535 H 32.7657 45.9751 9.59788
536 H 31.4976 44.9948 8.8211
537 C 32.386 44.1756 10.6792
538 H 33.428 44.4405 10.7755
539 H 32.2118 43.1691 10.3887
540 C 31.5653 44.4764 11.9754
541 H 32.1195 44.4381 12.926
542 H 30.6458 43.9164 12.0577
543 O 47.2075 -9.81094 -12.2802
544 C 46.7529 -9.99755 -10.9264
545 H 46.2178 -9.14103 -10.5594
546 H 47.6236 -10.1543 -10.3074
547 C 45.8454 -11.2135 -10.914
548 H 45.1569 -11.0709 -10.1028
549 H 46.3555 -12.1794 -10.7842
550 C 45.3783 -11.1359 -12.4204
551 H 44.2887 -11.238 -12.4417
552 H 45.7065 -12.0296 -12.992
553 C 45.9923 -9.90375 -13.042
554 H 45.4312 -8.95399 -12.7923
555 H 46.04 -9.98674 -14.1538
556 O -3.91126 -15.5196 54.0491
557 C -2.55194 -15.6351 54.499
558 H -1.85226 -15.7272 53.5897
559 H -2.63206 -16.5531 55.1381
560 C -2.30114 -14.3769 55.2811
561 H -2.00142 -13.5102 54.7577
562 H -1.55037 -14.7749 55.977
563 C -3.61176 -14.179 55.9672
564 H -3.94879 -13.1748 55.8103
565 H -3.59765 -14.2244 57.0688
566 C -4.58253 -15.1057 55.2701
567 H -5.48309 -14.6177 54.9429
568 H -4.93086 -15.9375 55.8953
569 O -16.8029 76.6934 27.7169
570 C -16.0285 77.8963 27.6303
571 H -15.1553 77.7783 27.0385
572 H -15.9029 78.2768 28.6485
573 C -17.0105 78.8623 26.942
574 H -16.3846 79.6529 26.5002
575 H -17.7788 79.3408 27.5541
576 C -17.834 77.945 26.0847
577 H -17.9537 78.1331 24.9805
578 H -18.8032 78.018 26.4776
579 C -17.3908 76.5368 26.4934
580 H -16.6048 76.2249 25.7173
581 H -18.0988 75.7705 26.441
582 O 57.6918 35.7195 15.956
583 C 58.7155 35.48 14.9914
584 H 58.2682 35.2729 13.9909
585 H 59.2118 34.6381 15.403
586 C 59.4967 36.841 15.0016
587 H 58.9991 37.6047 14.4714
588 H 60.4634 36.5677 14.6427
589 C 59.4214 37.2305 16.4575
590 H 58.8182 38.2094 16.597
591 H 60.3202 37.2537 17.0382
592 C 58.4723 36.0922 17.0946
593 H 57.7502 36.454 17.9064
594 H 59.1223 35.361 17.514
595 O -23.5316 -5.1672 41.5777
596 C -22.5113 -5.18365 42.5383
597 H -22.7513 -5.98734 43.2319
598 H -22.2634 -4.22882 43.0245
599 C -21.2462 -5.60513 41.7145
600 H -21.1219 -6.68221 41.8355
601 H -20.3976 -5.05986 42.1355
602 C -21.5606 -5.0824 40.3096
603 H -21.5622 -5.9071 39.5782
604 H -20.8599 -4.2667 39.9826
605 C -22.8951 -4.50429 40.4899
606 H -23.3382 -4.8482 39.557
607 H -22.8719 -3.42379 40.6648
608 O 21.0018 29.5598 -57.1669
609 C 20.5094 28.9337 -56.0055
610 H 19.5515 28.4107 -56.1331
611 H 20.5292 29.7342 -55.2707
612 C 21.5853 27.8935 -55.7731
613 H 21.4483 27.2208 -56.5627
614 H 21.4542 27.4175 -54.7977
615 C 22.8359 28.7646 -55.9893
616 H 23.4861 28.0227 -56.5389
617 H 23.2358 29.1252 -55.0477
618 C 22.3961 29.9165 -56.8498
619 H 22.7883 30.0569 -57.793
620 H 22.4693 30.8822 -56.2015
621 O 31.614 29.4426 75.1082
622 C 32.0265 28.2924 75.8115
623 H 32.8416 28.4642 76.4955
624 H 32.2754 27.4563 75.1318
625 C 30.7836 27.9311 76.6935
626 H 31.0468 27.3584 77.5861
627 H 30.0179 27.317 76.1425
628 C 30.1704 29.2882 77.0359
629 H 30.4309 29.6378 78.0582
630 H 29.0822 29.3096 77.0551
631 C 30.908 30.2561 76.0606
632 H 31.5654 30.8332 76.5985
633 H 30.3429 31.0611 75.643
634 O -12.2117 27.0403 -23.5524
635 C -11.7499 26.405 -22.3802
636 H -11.5381 27.0301 -21.591
637 H -10.8557 25.8941 -22.5622
638 C -12.8844 25.408 -22.0004
639 H -13.6395 26.0041 -21.4639
640 H -12.4698 24.6368 -21.3918
641 C -13.33 24.9839 -23.3132
642 H -14.3896 25.0932 -23.3484
643 H -13.2451 23.8627 -23.5057
644 C -12.5636 25.8981 -24.3433
645 H -13.1362 26.1039 -25.214
646 H -11.6509 25.3603 -24.7075
647 O -65.1351 -39.768 55.8109
648 C -64.748 -40.7265 56.8163
649 H -64.1944 -40.1894 57.6242
650 H -64.1951 -41.5388 56.3404
651 C -66.0946 -41.1824 57.3679
652 H -66.538 -40.6274 58.1478
653 H -66.0142 -42.2631 57.7727
654 C -67.0603 -41.0426 56.1853
655 H -67.8453 -40.4155 56.5051
656 H -67.5675 -41.9465 55.8578
657 C -66.1382 -40.4866 55.0854
658 H -66.724 -39.8293 54.468
659 H -65.6659 -41.1898 54.4865
660 O 0.475425 4.5073 23.6696
661 C -0.101595 3.24891 24.1244
662 H 0.251145 3.03273 25.1464
663 H 0.206781 2.47637 23.3216
664 C -1.53177 3.51508 24.0102
665 H -2.05294 2.95753 24.6925
666 H -1.80045 3.28825 22.9652
667 C -1.65312 5.06699 24.2424
668 H -2.32577 5.31487 25.1532
669 H -2.06845 5.52992 23.3414
670 C -0.246848 5.44831 24.5122
671 H 0.128848 5.54618 25.5278
672 H -0.0466895 6.35915 24.1006
673 O 39.7511 60.8613 -18.1743
674 C 39.5542 60.2007 -19.4297
675 H 38.5565 60.2908 -19.7725
676 H 39.6685 59.1202 -19.3773
677 C 40.4729 60.9766 -20.3505
678 H 39.8285 61.7004 -20.9217
679 H 41.0345 60.3709 -21.0873
680 C 41.3601 61.7536 -19.3987
681 H 40.9291 62.7969 -19.2683
682 H 42.3542 61.6913 -19.8549
683 C 41.1225 61.0439 -18.0862
684 H 41.3879 61.5732 -17.1891
685 H 41.6627 60.1323 -18.0696
686 O 13.1713 -5.12519 -0.385301
687 C 12.4622 -4.16731 0.374087
688 H 12.3089 -4.55724 1.35285
689 H 11.5976 -3.941 -0.170912
690 C 13.4943 -3.08703 0.533101
691 H 14.0501 -3.32985 1.44765
692 H 13.1429 -2.02389 0.709475
693 C 14.4011 -3.18567 -0.687531
694 H 15.4573 -3.42064 -0.324725
695 H 14.3518 -2.28512 -1.33182
696 C 13.7206 -4.31575 -1.47816
697 H 14.4246 -4.96254 -1.9562
698 H 12.9097 -3.89952 -2.13943
699 O 41.8685 56.4874 53.8072
700 C 41.7142 57.8399 54.1715
701 H 40.9562 57.8945 55.0344
702 H 41.4159 58.3134 53.2333
703 C 43.0973 58.2117 54.6118
704 H 43.3219 58.3694 55.6573
705 H 43.4394 59.1612 54.0817
706 C 44.0302 57.0537 54.2159
707 H 44.0731 56.4721 55.0884
708 H 45.0147 57.3613 53.8254
709 C 43.1487 56.3644 53.1837
710 H 43.3791 55.1989 53.0582
711 H 43.2097 56.8471 52.2366
712 O -28.7737 60.3863 -5.50008
713 C -29.1605 59.5801 -4.38128
714 H -29.3431 58.5793 -4.60789
715 H -30.152 59.9681 -4.07667
716 C -27.9497 59.8939 -3.4733
717 H -27.5896 59.0048 -3.00722
718 H -28.1325 60.6148 -2.6777
719 C -26.8799 60.3552 -4.38513
720 H -25.9707 59.7289 -4.46193
721 H -26.5985 61.3301 -4.0444
722 C -27.4335 60.1662 -5.81244
723 H -27.3089 59.1696 -6.20936
724 H -27.0126 60.8094 -6.59278
725 O 14.4578 32.8531 22.0378
726 C 15.2798 32.5563 23.1388
727 H 16.3997 32.6078 22.9133
728 H 15.1238 31.4837 23.5642
729 C 14.9189 33.7641 24.0778
730 H 15.6489 34.5527 23.9581
731 H 14.9859 33.4389 25.1208
732 C 13.5001 34.2153 23.5946
733 H 13.5914 35.0469 23.002
734 H 12.7585 34.348 24.428
735 C 13.1598 33.0993 22.5673
736 H 12.4806 33.388 21.8451
737 H 12.6783 32.1852 23.0105
738 O 47.7638 8.83837 -25.6957
739 C 46.582 8.07915 -26.0952
740 H 45.9056 8.81844 -26.5261
741 H 45.9548 7.67427 -25.3581
742 C 47.021 7.17862 -27.176
743 H 46.4795 7.16525 -28.0668
744 H 46.8126 6.14595 -26.8325
745 C 48.501 7.5928 -27.3937
746 H 48.8934 7.3974 -28.4268
747 H 49.0098 6.88491 -26.7211
748 C 48.5805 8.97613 -26.8671
749 H 48.2358 9.56546 -27.6121
750 H 49.5481 9.34929 -26.5767
751 O -25.9776 7.16482 -11.7024
752 C -25.0189 6.66108 -12.6617
753 H -25.4443 6.13961 -13.5462
754 H -24.3654 6.03039 -12.2149
755 C -24.4088 7.97951 -13.1885
756 H -24.3447 8.09995 -14.263
757 H -23.3386 8.04022 -12.9844
758 C -25.1775 9.162 -12.4221
759 H -25.2151 10.1551 -12.9022
760 H -24.5857 9.31623 -11.4817
761 C -26.4766 8.40521 -12.1477
762 H -27.1549 8.31766 -12.9836
763 H -27.0774 8.82065 -11.3769
764 O 46.3937 -0.821603 48.6706
765 C 45.56 -1.14149 49.7365
766 H 45.1319 -2.04626 49.7572
767 H 44.7445 -0.472266 49.7076
768 C 46.3835 -0.814318 50.9366
769 H 47.1538 -1.52436 51.3076
770 H 45.8507 -0.709993 51.8575
771 C 47.2781 0.325481 50.3868
772 H 48.2955 0.00657868 50.5583
773 H 47.186 1.30999 50.9152
774 C 46.8385 0.47843 48.9213
775 H 47.5056 0.796967 48.1536
776 H 45.9858 1.24837 48.9353
777 O 65.9909 -12.9206 43.0205
778 C 64.8003 -13.6666 42.7631
779 H 64.9498 -14.7143 42.8164
780 H 64.3562 -13.606 41.7284
781 C 63.8663 -13.1163 43.7683
782 H 63.2803 -13.8576 44.3484
783 H 63.1309 -12.4758 43.2929
784 C 64.6948 -12.3788 44.7983
785 H 64.5951 -12.7275 45.8713
786 H 64.4614 -11.3486 44.8059
787 C 66.1665 -12.7175 44.3635
788 H 66.4524 -13.7103 44.8683
789 H 66.8021 -11.8494 44.662
790 O 8.72587 -35.7304 -15.3101
791 C 8.06035 -34.549 -14.7202
792 H 8.12438 -33.7301 -15.461
793 H 8.49181 -34.2628 -13.7668
794 C 6.67893 -35.2818 -14.5384
795 H 6.24897 -35.5142 -15.5226
796 H 5.81907 -34.8393 -14.006
797 C 6.96069 -36.596 -13.9406
798 H 6.32752 -37.3623 -14.3552
799 H 6.81705 -36.6392 -12.8713
800 C 8.39895 -36.7043 -14.3502
801 H 8.50868 -37.6688 -14.7059
802 H 9.06264 -36.6958 -13.4729
803 O 48.6291 11.4975 -39.3678
804 C 49.0439 10.6213 -38.2766
805 H 48.3519 9.75901 -38.1803
806 H 49.0865 11.1199 -37.392
807 C 50.4287 10.1979 -38.8601
808 H 50.8256 9.17555 -38.6193
809 H 51.1129 10.9064 -38.5104
810 C 50.3989 10.3058 -40.3279
811 H 50.6333 9.38397 -40.781
812 H 51.1055 11.0653 -40.6828
813 C 48.9758 10.8159 -40.6175
814 H 48.2865 9.97509 -40.7185
815 H 48.7239 11.314 -41.6047
816 O -30.4012 -8.72572 -51.5422
817 C -30.2445 -9.92382 -52.3708
818 H -29.5516 -9.83006 -53.1643
819 H -31.1653 -10.2055 -52.883
820 C -29.7197 -10.9207 -51.3156
821 H -29.0394 -11.7019 -51.7677
822 H -30.4873 -11.3408 -50.7855
823 C -28.8984 -10.0017 -50.4282
824 H -27.7945 -10.2538 -50.4108
825 H -29.3461 -10.1281 -49.4631
826 C -29.1682 -8.56646 -50.8268
827 H -28.3896 -8.18825 -51.484
828 H -29.3482 -7.73996 -50.0458
829 O 47.9672 115.066 -39.4471
830 C 47.1669 114.769 -38.326
831 H 46.8482 113.763 -38.6035
832 H 46.3982 115.522 -38.1647
833 C 48.1484 114.631 -37.1236
834 H 47.9304 113.847 -36.4778
835 H 48.0872 115.595 -36.5904
836 C 49.4655 114.579 -37.7735
837 H 49.9811 113.7 -37.4176
838 H 50.1225 115.375 -37.5189
839 C 49.2481 114.418 -39.2767
840 H 49.2168 113.31 -39.5191
841 H 50.0108 114.926 -39.8635
842 O -45.9111 -53.0941 82.3266
843 C -45.5101 -53.9675 83.383
844 H -44.5185 -53.6861 83.7385
845 H -45.4486 -55.0137 83.0365
846 C -46.6147 -53.8512 84.4796
847 H -46.2884 -54.2291 85.497
848 H -47.4575 -54.4847 84.0347
849 C -47.1547 -52.4963 84.2809
850 H -46.8421 -51.9234 85.114
851 H -48.2071 -52.4609 84.2816
852 C -46.3796 -51.9544 83.0168
853 H -45.5241 -51.3196 83.3849
854 H -46.997 -51.2989 82.3969
855 O 21.2904 39.7761 -0.29528
856 C 20.1564 39.0817 0.0625284
857 H 20.3978 38.4315 0.876707
858 H 19.7749 38.5934 -0.86929
859 C 19.3118 40.1947 0.579493
860 H 19.4185 40.3051 1.62268
861 H 18.3564 40.015 0.351296
862 C 19.7543 41.429 -0.261842
863 H 20.0638 42.1924 0.459963
864 H 18.8698 41.8689 -0.821076
865 C 20.9069 40.8992 -1.10172
866 H 21.8141 41.4834 -1.1325
867 H 20.6554 40.4783 -2.12728
868 O -10.5389 -10.5689 102.449
869 C -10.7618 -9.28384 101.946
870 H -11.834 -9.00217 102.075
871 H -10.5019 -9.24802 100.928
872 C -9.76939 -8.40534 102.687
873 H -10.1699 -7.83354 103.625
874 H -9.32677 -7.59411 102.118
875 C -8.73757 -9.47118 103.182
876 H -8.8218 -9.5265 104.272
877 H -7.71467 -9.13334 102.836
878 C -9.11665 -10.7101 102.467
879 H -9.05103 -11.5955 103.108
880 H -8.65492 -10.8697 101.55
881 O 29.3596 83.0929 -24.4507
882 C 28.2672 83.6842 -23.7591
883 H 28.5194 84.7 -23.9781
884 H 28.334 83.4416 -22.6831
885 C 27.0211 83.2053 -24.5606
886 H 26.4195 84.0916 -24.8768
887 H 26.3829 82.5036 -23.9145
888 C 27.6103 82.4723 -25.8254
889 H 27.0952 82.8478 -26.7026
890 H 27.4227 81.4467 -25.638
891 C 29.0036 83.1406 -25.8728
892 H 29.1006 84.0825 -26.4491
893 H 29.741 82.5037 -26.3773
894 O 29.1495 10.6871 4.86613
895 C 28.8076 10.6495 3.49189
896 H 28.4551 11.6231 3.08963
897 H 27.9392 9.94888 3.45906
898 C 30.0652 10.1859 2.85349
899 H 30.77 11.0603 2.73865
900 H 29.9556 9.96255 1.75596
901 C 30.5778 9.20746 3.91526
902 H 31.7181 9.2932 4.11579
903 H 30.5128 8.13411 3.64662
904 C 29.8169 9.44401 5.18536
905 H 30.4852 9.54364 5.98837
906 H 29.1056 8.72518 5.4141
907 O 41.0751 -42.7841 45.1883
908 C 39.996 -43.501 44.6275
909 H 39.1009 -42.8802 44.2965
910 H 39.5866 -44.1043 45.3849
911 C 40.56 -44.2102 43.3838
912 H 39.9214 -43.8666 42.5811
913 H 40.4562 -45.2805 43.4731
914 C 42.0621 -43.7357 43.2789
915 H 42.2675 -43.3656 42.2086
916 H 42.7937 -44.4707 43.7973
917 C 42.0262 -42.4288 44.1074
918 H 41.6447 -41.545 43.5873
919 H 42.9433 -42.1584 44.6127
920 O 51.6317 52.304 26.5587
921 C 50.9801 53.4688 27.0012
922 H 49.9634 53.2544 27.2816
923 H 51.0155 54.2497 26.2451
924 C 51.7283 53.8221 28.2774
925 H 51.3373 54.6127 28.8574
926 H 52.7271 54.2689 28.0207
927 C 51.8459 52.4948 28.9444
928 H 50.9412 52.3521 29.5184
929 H 52.6659 52.4041 29.7657
930 C 51.7176 51.4811 27.7664
931 H 50.7726 50.9199 27.989
932 H 52.5416 50.7733 27.7427
933 O -13.0093 44.1979 33.9583
934 C -12.6725 42.8678 34.1779
935 H -11.6444 42.7373 33.8034
936 H -13.4403 42.1771 33.7258
937 C -12.4608 42.7846 35.6335
938 H -11.9345 41.9084 35.996
939 H -13.4582 42.8375 36.1339
940 C -11.7783 44.0082 35.9109
941 H -10.654 43.8111 35.7526
942 H -11.8739 44.3364 36.9402
943 C -12.3331 45.0113 34.9349
944 H -11.5943 45.6961 34.5513
945 H -13.1286 45.5174 35.4706
946 O 41.9262 17.9775 39.3165
947 C 41.0406 16.9242 39.1366
948 H 40.1113 17.2645 38.7065
949 H 40.7119 16.3691 40.0198
950 C 41.8937 15.9499 38.2821
951 H 41.416 15.1977 37.7108
952 H 42.5182 15.2922 38.9096
953 C 42.7005 16.9502 37.4471
954 H 42.3367 17.0173 36.4911
955 H 43.7286 16.8028 37.4427
956 C 42.3142 18.3725 38.0548
957 H 41.4773 18.7839 37.5056
958 H 43.1512 18.9681 38.1264
959 O 29.2611 55.3493 46.7662
960 C 28.8041 55.2076 45.4393
961 H 28.894 56.136 44.8914
962 H 27.7548 54.7958 45.3301
963 C 29.7156 54.165 44.8875
964 H 30.6546 54.6276 44.6002
965 H 29.3461 53.6328 43.952
966 C 29.8934 53.1964 46.1109
967 H 30.8926 52.6713 46.1839
968 H 29.1732 52.361 46.0325
969 C 29.4171 54.0588 47.2559
970 H 30.202 53.9297 48.0543
971 H 28.4493 53.7173 47.5317