  384
 i =    27121, time =    13560.500, E =     -2200.7979253593
H      0.83136638   13.94536516    1.54466704
H     -0.63405362   13.56482516    0.96107704
O      0.23153638   13.17473516    1.25690704
H      9.52647638   11.21298516    6.82083704
H     10.57899638   11.69811516    5.69248704
O      9.90950638   11.99835516    6.34318704
H     10.98061638   12.14554516    0.96769704
H     12.29962638   11.12533516    0.88669704
O     12.00816638   12.05411516    0.86281704
H      8.82887638    1.19255516    4.65414704
H      8.29303638   -0.21359484    5.27144704
O      7.95862638    0.65588516    4.86686704
H      7.06225638    4.57011516   10.71631704
H      7.81397638    5.75449516    9.97016704
O      7.06818638    5.51256516   10.62573704
H      3.56363638    4.51287516   12.52603704
H      4.33572638    3.41658516   11.97755704
O      3.51234638    3.81051516   11.79369704
H      0.72371638    7.16081516    9.18410704
H      0.20771638    8.52390516    9.94153704
O      0.19230638    7.95692516    9.04667704
H      0.05308638   12.30096516   10.12324704
H      0.19538638   11.86150516   11.58332704
O      0.67513638   12.30164516   10.84414704
H      4.71328638    1.06630516    3.24691704
H      4.93622638    1.43843516    1.87620704
O      4.19051638    1.03212516    2.30149704
H     15.21300638    6.74400516   16.33356704
H     16.22995638    7.17097516   15.23614704
O     15.34658638    6.70870516   15.41938704
H      1.43815638    9.25091516   14.11486704
H      0.58640638    8.57115516   12.98987704
O      1.35526638    8.39490516   13.60561704
H      4.37309638    5.78509516    7.34039704
H      5.68931638    5.38463516    6.45126704
O      4.71169638    5.48337516    6.42709704
H     14.61140638   13.23174516    8.44987704
H     14.14443638   11.81986516    8.62233704
O     14.97472638   12.33816516    8.74377704
H     13.56309638    1.85858516    5.28912704
H     12.41017638    0.90151516    4.80463704
O     12.63328638    1.86916516    5.00779704
H      5.27344638    8.99471516   15.21413704
H      4.43883638    7.82909516   14.49733704
O      4.43293638    8.45784516   15.27995704
H      5.13030638   14.53830516   11.42081704
H      6.58966638   14.23614516   11.76524704
O      5.99304638   14.40435516   11.00802704
H     13.95793638    8.20303516    8.47820704
H     12.83091638    9.24463516    8.29932704
O     13.01505638    8.25353516    8.39783704
H     15.84268638   15.73777516   11.26852704
H     15.94937638   13.97795516   11.39719704
O     15.62889638   14.94055516   11.86730704
H     12.32834638    4.27015516    8.61642704
H     11.29515638    3.18160516    8.28854704
O     11.54179638    3.84833516    8.98517704
H      5.25508638   15.78220516   13.69098704
H      3.81421638   15.46931516   13.57726704
O      4.59587638   15.19744516   14.12852704
H      1.87936638    1.03468516   13.72677704
H      1.34345638   -0.17880484   12.78400704
O      2.13461638    0.29050516   13.12074704
H     10.80808638    4.47976516    1.74369704
H     10.56631638    6.05720516    1.52652704
O     10.16471638    5.15900516    1.46974704
H      1.33457638    5.40497516   15.27965704
H      2.47951638    5.35628516   14.30808704
O      1.67539638    4.83956516   14.54781704
H      2.59290638    8.42890516    0.54066704
H      1.40632638    8.38068516    1.64146704
O      1.60075638    8.39291516    0.67220704
H      9.77966638    2.01362516    7.06649704
H     11.30396638    1.90614516    6.36766704
O     10.80692638    1.87580516    7.25450704
H      8.35661638    4.61956516   13.31142704
H      9.45958638    4.18523516   12.17709704
O      8.53084638    3.97089516   12.64226704
H      7.14043638    8.08417516    2.07233704
H      6.60182638    9.40808516    2.90534704
O      6.45693638    8.41177516    2.76136704
H      2.38265638    3.27014516    6.72104704
H      0.89378638    3.02957516    6.53477704
O      1.52814638    3.35004516    7.24034704
H      2.98044638    1.72863516   15.61846704
H      2.28897638    3.21436516   15.22527704
O      2.19304638    2.23213516   15.29547704
H      5.34696638   11.96119516   15.07981704
H      5.44294638   13.33887516   14.27787704
O      5.61048638   12.37052516   14.19391704
H      7.34638638    8.99715516   11.90145704
H      5.96346638    9.88967516   11.85179704
O      6.76464638    9.62927516   11.37446704
H      6.04936638   11.14817516    6.03653704
H      4.81395638   10.36968516    5.51809704
O      5.47478638   10.45746516    6.35220704
H     15.38810638    2.44868516    1.49943704
H     16.51673638    1.90526516    0.44680704
O     15.54749638    1.99160516    0.68527704
H     12.80658638   15.75965516   13.26105704
H     14.17103638   15.08813516   13.00612704
O     13.41818638   15.07377516   13.60852704
H      4.36135638    6.71341516    5.10962704
H      4.12096638    8.13724516    4.14478704
O      3.94443638    7.23526516    4.33798704
H      7.91704638    3.44206516    7.11776704
H      7.78840638    1.99524516    6.53179704
O      8.09512638    2.45854516    7.36807704
H      8.11464638    5.86154516    6.17608704
H      8.52194638    5.56824516    7.69339704
O      7.89426638    5.31606516    6.97446704
H     14.94650638   15.52377516    8.77342704
H     13.38190638   15.12197516    8.93942704
O     14.24462638   14.94934516    8.47441704
H      6.86478638    7.66874516    6.27242704
H      6.39221638    9.08124516    6.63777704
O      6.81231638    8.24971516    7.05719704
H      7.22358638   13.23753516    5.15446704
H      5.66753638   13.04130516    4.70746704
O      6.59313638   12.61420516    4.63496704
H     10.11596638    8.28424516    1.09926704
H     11.64971638    8.59409516    1.35179704
O     11.05837638    7.89601516    0.95936704
H      2.71483638    2.75157516    8.85482704
H      2.79702638    3.02157516   10.33570704
O      2.72949638    2.24398516    9.67839704
H     11.05148638   13.15457516    7.01510704
H     11.57571638   14.34215516    7.93513704
O     11.74913638   13.88659516    7.06336704
H     14.89110638   15.98952516    0.68559704
H     13.74154638   15.18973516   -0.20899296
O     14.06615638   15.35418516    0.71372704
H      8.25112638    6.87344516    0.21730704
H      7.97437638    8.42849516    0.18417704
O      8.22629638    7.77123516    0.88435704
H     13.59987638   11.25218516    4.73769704
H     12.79945638    9.99294516    5.33897704
O     12.83141638   10.96016516    5.22853704
H      8.92912638    7.69587516   12.39794704
H      7.73874638    6.52777516   12.34035704
O      7.95766638    7.53091516   12.57343704
H     15.68977638   11.82871516   15.87485704
H     14.97449638   10.33776516   15.83085704
O     15.60980638   11.00762516   15.36673704
H      9.20119638    2.04403516   15.48640704
H      9.00178638    2.73149516   14.04917704
O      9.50844638    2.12175516   14.57507704
H     12.39564638    3.19776516    2.25228704
H     12.65784638    3.11907516    3.74343704
O     12.47470638    3.80020516    3.05277704
H      6.70055638    7.10147516    3.93659704
H      8.12342638    7.28420516    4.61074704
O      7.28976638    6.74925516    4.66909704
H     -0.19389362   14.64941516    4.74894704
H      1.32694638   14.52626516    5.18288704
O      0.64236638   15.18909516    4.75785704
H     13.03694638    7.82050516    6.33761704
H     11.61319638    8.00197516    5.70251704
O     12.55968638    8.24406516    5.54924704
H      7.76280638   15.46183516    2.88722704
H      7.81279638   15.06356516    1.28108704
O      8.27129638   14.98897516    2.20922704
H     15.66507638   10.55248516    3.68861704
H     15.14147638   11.89628516    2.87298704
O     14.85844638   11.05297516    3.31839704
H      9.02780638   12.49910516    0.10845704
H      9.03500638   13.57342516    1.19763704
O      9.19665638   12.59489516    1.04407704
H     12.82762638   11.37036516    7.05565704
H     12.06901638   11.53326516    8.52796704
O     12.79254638   11.06044516    8.09057704
H      4.05829638   10.02872516    7.68353704
H      3.26973638    9.90505516    8.95849704
O      3.22927638    9.55466516    8.04970704
H     15.26530638   11.08373516   13.79375704
H     13.95682638   11.61421516   13.00751704
O     14.83379638   11.24714516   12.89783704
H      9.66034638    0.82533516    1.84245704
H     10.64816638    1.94106516    1.47770704
O      9.72690638    1.82187516    1.86507704
H      7.18333638    3.02518516   12.48781704
H      6.51304638    1.97365516   11.44222704
O      6.27257638    2.57885516   12.20297704
H      5.43004638    8.05474516   10.95795704
H      5.75629638    6.54931516   10.79303704
O      4.95791638    7.19828516   10.77398704
H      3.49876638   13.83874516    5.22201704
H      4.53062638   14.92962516    4.75682704
O      4.25202638   13.99885516    4.57636704
H      2.73519638    7.08427516   13.08986704
H      4.03236638    6.71249516   12.23807704
O      3.65699638    6.66475516   13.15705704
H      2.99685638   13.24465516    7.30440704
H      2.06050638   12.28304516    6.52332704
O      2.57508638   13.15632516    6.41546704
H      8.07568638    1.51354516    9.18268704
H      7.01927638    0.50863516    9.77990704
O      7.60809638    1.21979516   10.00727704
H     16.03585638    3.82565516   13.97408704
H     15.14155638    2.79935516   14.77929704
O     15.19687638    3.21618516   13.87439704
H      6.94366638   16.32470516   15.57188704
H      6.12937638   14.96445516   15.62257704
O      7.05246638   15.28904516   15.44306704
H      3.23684638    0.13339516   11.48336704
H      3.48454638    0.87080516   10.15522704
O      3.56906638    0.02037516   10.56534704
H      7.18201638   12.28996516    9.50833704
H      7.36529638   11.03116516   10.40051704
O      7.86778638   11.64903516    9.79931704
H      1.67751638   10.86733516    0.25765704
H      2.35137638   12.23070516    0.58840704
O      2.57901638   11.34604516    0.30706704
H     10.66335638    9.45622516   12.02083704
H     10.71066638    8.47523516   10.75766704
O     10.63774638    8.50988516   11.73332704
H     10.93426638    0.14086516   10.08457704
H     11.13972638    0.74611516    8.64561704
O     11.48012638   -0.00633484    9.27294704
H      2.10253638    5.66293516    9.20550704
H      1.13283638    4.48334516    8.72069704
O      1.42378638    5.06501516    9.51620704
H      4.33750638   10.40719516    3.30988704
H      3.02399638   10.07959516    4.10172704
O      4.04960638    9.97497516    4.08676704
H      3.54741638   10.64729516   11.11865704
H      2.43543638   11.46448516   10.54552704
O      3.28189638   11.00194516   10.29298704
H      6.34967638   13.24868516    2.68898704
H      4.97805638   13.91772516    2.84513704
O      5.65369638   13.72259516    2.16252704
H      4.00209638   10.05915516   13.65503704
H      4.56544638   11.31348516   13.21933704
O      4.28766638   10.47340516   12.85711704
H     13.59177638    3.75325516   14.14797704
H     12.56772638    4.80973516   14.33562704
O     12.58953638    3.84322516   14.26977704
H     12.21176638    2.01951516   12.33494704
H     11.10717638    1.72886516   13.45892704
O     11.60150638    1.27011516   12.76026704
H      8.76686638   14.73352516   12.53423704
H      7.77166638   14.45724516   13.67539704
O      8.12547638   14.06152516   12.85512704
H      4.66607638    6.75762516    2.46122704
H      4.66541638    7.15450516    1.00301704
O      4.44310638    6.38014516    1.62524704
H      4.05011638   11.23007516    1.09420704
H      5.28949638   11.94044516    1.98435704
O      4.93338638   11.12155516    1.58381704
H     15.01310638    5.03448516    5.14471704
H     15.87140638    5.06376516    6.43761704
O     15.33428638    5.62339516    5.81785704
H      7.54552638   11.70850516    3.66467704
H      7.68940638   11.36471516    2.06693704
O      7.65884638   10.96531516    3.00679704
H     14.87672638    5.52230516    9.86099704
H     13.38173638    5.92078516   10.27338704
O     13.94409638    5.20476516    9.86499704
H     12.00631638    7.12683516   15.13817704
H     13.53248638    6.86703516   14.98633704
O     12.62172638    6.53212516   14.71118704
H      2.92365638    2.35531516    3.14129704
H      2.00580638    3.59454516    3.13415704
O      2.18504638    2.76217516    3.66494704
H      9.66976638    8.80726516    8.89554704
H     11.18043638    8.30156516    8.70494704
O     10.39678638    8.16676516    9.25064704
H      7.87173638   12.13764516   14.08898704
H      9.05638638   11.62920516   13.33192704
O      8.53167638   11.41430516   14.14067704
H     15.54566638    4.53647516    2.34835704
H     14.07125638    4.07283516    2.86944704
O     15.06533638    4.01578516    3.08672704
H      2.32922638    6.96746516    4.31769704
H      0.79919638    6.64179516    4.72432704
O      1.39374638    6.92695516    3.98518704
H     15.60297638    2.75715516    4.41864704
H     15.82223638    1.44468516    5.21423704
O     15.28480638    2.22153516    5.18875704
H      2.79161638    5.66316516    1.58410704
H      1.67778638    5.81412516    2.57286704
O      1.92981638    5.27773516    1.73234704
H     13.04031638    6.97526516    2.69934704
H     14.26480638    7.42973516    3.57880704
O     13.99870638    7.21340516    2.66863704
H     14.33580638    8.31557516   11.53881704
H     14.70780638    9.81070516   12.06218704
O     15.11482638    8.93369516   11.69220704
H      5.64856638   13.59994516    8.13962704
H      6.43940638   14.20654516    9.38061704
O      6.53521638   13.91480516    8.43338704
H      3.99715638    6.67551516    9.24983704
H      3.24107638    7.57433516    8.19915704
O      3.45661638    6.59716516    8.44260704
H      0.44650638   11.22063516    7.55029704
H      1.77473638   10.40167516    7.61639704
O      1.17993638   10.90390516    7.01647704
H     14.52070638    3.20892516   12.29014704
H     13.75831638    3.68892516   10.96093704
O     14.02602638    2.91649516   11.46140704
H     12.60320638   13.14182516    2.08878704
H     13.38491638   14.48652516    2.09195704
O     12.81970638   13.89006516    2.69304704
H      9.63376638   12.33684516    9.72052704
H     10.76724638   13.51247516    9.83690704
O     10.66260638   12.49282516    9.87013704
H      9.70285638   10.61758516    3.11479704
H     11.32024638   10.83576516    3.50267704
O     10.57120638   10.25362516    3.36853704
H     13.96478638   10.15699516    2.13626704
H     13.71950638    8.71429516    1.58235704
O     13.63458638    9.66735516    1.32545704
H     -0.50880362    1.86199516   10.49636704
H      1.05143638    1.55856516   10.06538704
O      0.12622638    1.18000516   10.13681704
H     10.46690638   11.74610516   11.56115704
H     11.29906638   11.74618516   12.81753704
O     10.47369638   11.28819516   12.44073704
H     12.27173638    2.84676516   -0.24030296
H     12.71675638    1.42007516    0.46788704
O     12.35136638    2.25030516    0.62607704
H      4.12397638    3.91236516    6.10781704
H      3.15380638    3.02634516    5.04515704
O      3.69837638    3.02568516    5.83299704
H      5.35840638    5.06539516    1.29890704
H      6.25541638    4.21652516    2.18264704
O      5.91264638    4.29832516    1.21022704
H      2.78270638   15.50827516    2.13221704
H      1.60097638   15.34170516    3.14408704
O      1.94112638   15.03031516    2.25535704
H      9.97315638    6.42234516    8.86993704
H     10.14060638    4.81596516    8.97978704
O      9.50486638    5.57719516    9.07425704
H      3.58552638   14.26426516    9.30710704
H      3.71441638   12.77473516    9.35985704
O      3.92436638   13.52292516    8.82497704
H      8.93171638   13.32794516    6.10421704
H      7.83853638   14.09732516    7.07212704
O      8.14769638   14.00139516    6.13752704
H      8.37250638   10.62804516    8.69939704
H      8.06583638    9.33718516    7.62310704
O      8.78685638    9.96548516    7.98805704
H     11.05306638    4.16167516   10.86243704
H     11.57538638    5.20941516   11.90174704
O     11.05086638    4.34502516   11.82141704
H      5.99533638    2.95023516   15.79507704
H      6.21187638    2.12059516   14.49907704
O      6.24174638    2.05832516   15.45420704
H     12.25915638   12.39767516   14.84366704
H     13.06405638   13.49522516   13.73835704
O     12.56888638   12.54554516   13.87166704
H      1.22724638    8.94140516    4.36627704
H      1.23570638   10.20865516    5.46507704
O      1.26845638    9.88279516    4.52572704
H     13.18161638    6.97746516   12.89527704
H     12.10371638    7.74666516   12.02340704
O     12.96714638    7.25670516   11.97979704
H      7.43483638    5.02009516   15.84076704
H      9.04049638    5.13110516   15.75923704
O      8.16851638    5.42315516   15.34050704
H      9.47406638    2.71049516    3.28690704
H     10.38436638    3.56216516    4.29895704
O      9.45869638    3.23015516    4.15560704
H      7.38256638    8.52801516   13.99491704
H      7.36312638   10.01957516   14.34977704
O      6.99280638    9.11977516   14.60429704
H      7.64131638    3.81455516    3.97341704
H      6.79457638    5.11017516    4.16556704
O      6.70975638    4.21800516    3.83661704
H     10.22948638    0.55803516   12.02055704
H      8.95449638    0.55162516   10.96022704
O      9.72409638    0.04744516   11.36610704
H      9.90093638    9.02512516    4.36164704
H      8.78806638    9.06415516    5.46222704
O      9.50205638    8.49123516    5.13327704
H     13.45512638   13.62924516    6.08116704
H     13.76093638   13.48316516    4.39245704
O     14.17547638   13.49939516    5.31516704
H      4.86226638    1.52260516    5.34849704
H      6.32901638    1.00240516    4.82031704
O      5.35414638    0.94973516    4.72075704
H     11.26158638   14.93079516    5.74017704
H     11.49592638   14.52367516    4.16413704
O     11.12621638   15.24662516    4.78394704
  384
 i =    27122, time =    13561.000, E =     -2200.7947851669
H      0.82359983   13.94841947    1.54571946
H     -0.62317017   13.57189947    0.95374946
O      0.23224983   13.17597947    1.25831946
H      9.51286983   11.19202947    6.81076946
H     10.58372983   11.70406947    5.68643946
O      9.91051983   11.99538947    6.34368946
H     10.97779983   12.14147947    0.98392946
H     12.30522983   11.13055947    0.89538946
O     12.00879983   12.05642947    0.86076946
H      8.82123983    1.18854947    4.65332946
H      8.29363983   -0.21515053    5.27725946
O      7.96107983    0.65596947    4.86240946
H      7.07199983    4.56673947   10.71389946
H      7.80992983    5.74682947    9.98607946
O      7.07183983    5.51092947   10.62639946
H      3.56017983    4.50957947   12.52371946
H      4.33291983    3.42368947   11.97118946
O      3.51166983    3.80767947   11.79503946
H      0.72692983    7.16839947    9.18953946
H      0.21390983    8.51829947    9.94000946
O      0.18983983    7.95753947    9.04768946
H      0.06246983   12.28623947   10.11486946
H      0.19031983   11.86394947   11.58653946
O      0.67161983   12.30338947   10.84501946
H      4.71312983    1.07447947    3.24431946
H      4.94662983    1.43947947    1.86337946
O      4.19019983    1.03074947    2.30409946
H     15.21097983    6.73923947   16.33959946
H     16.22785983    7.17905947   15.23054946
O     15.34728983    6.70686947   15.41984946
H      1.44530983    9.24372947   14.11303946
H      0.58134983    8.57779947   12.98405946
O      1.35620983    8.39427947   13.60580946
H      4.35910983    5.79214947    7.32156946
H      5.68767983    5.38811947    6.45669946
O      4.71319983    5.48035947    6.42445946
H     14.60966983   13.22756947    8.43799946
H     14.16148983   11.83345947    8.62854946
O     14.98057983   12.33527947    8.74394946
H     13.57205983    1.86824947    5.27384946
H     12.40470983    0.89855947    4.80094946
O     12.63463983    1.86894947    5.00474946
H      5.29043983    8.99739947   15.22099946
H      4.43968983    7.81519947   14.48935946
O      4.43344983    8.45752947   15.28158946
H      5.12159983   14.55022947   11.41534946
H      6.58272983   14.22640947   11.76307946
O      5.99109983   14.40260947   11.00915946
H     13.96989983    8.19592947    8.47452946
H     12.84220983    9.24622947    8.31183946
O     13.01196983    8.25064947    8.39687946
H     15.85576983   15.73832947   11.26983946
H     15.92874983   13.97083947   11.40056946
O     15.62690983   14.94281947   11.86953946
H     12.31606983    4.26538947    8.60457946
H     11.29699983    3.18368947    8.28074946
O     11.54176983    3.84903947    8.98803946
H      5.24053983   15.78647947   13.69976946
H      3.80569983   15.45881947   13.58687946
O      4.59436983   15.20021947   14.13246946
H      1.87572983    1.02541947   13.73362946
H      1.33065983   -0.17198053   12.76681946
O      2.13690983    0.29477947   13.12505946
H     10.80404983    4.47372947    1.74518946
H     10.56643983    6.05965947    1.52198946
O     10.16454983    5.16044947    1.46812946
H      1.34035983    5.41713947   15.27802946
H      2.48165983    5.35846947   14.31501946
O      1.67420983    4.83943947   14.54410946
H      2.58611983    8.43096947    0.52937946
H      1.41028983    8.39680947    1.64113946
O      1.59916983    8.39353947    0.67073946
H      9.78572983    2.00018947    7.06207946
H     11.30072983    1.90785947    6.38453946
O     10.80334983    1.87577947    7.25289946
H      8.34136983    4.64163947   13.31218946
H      9.46688983    4.17813947   12.17691946
O      8.53105983    3.96830947   12.64377946
H      7.12602983    8.09179947    2.06999946
H      6.61966983    9.40739947    2.90753946
O      6.45705983    8.41049947    2.76084946
H      2.39885983    3.25639947    6.71153946
H      0.89359983    3.04290947    6.52800946
O      1.52963983    3.34680947    7.23360946
H      2.97320983    1.72009947   15.60787946
H      2.28179983    3.21906947   15.22180946
O      2.19165983    2.23188947   15.29635946
H      5.34559983   11.96592947   15.08982946
H      5.42385983   13.34306947   14.27872946
O      5.61026983   12.36992947   14.19065946
H      7.33466983    9.01144947   11.90444946
H      5.95718983    9.88551947   11.84564946
O      6.76610983    9.62640947   11.36981946
H      6.04851983   11.16063947    6.04832946
H      4.81384983   10.38232947    5.51689946
O      5.47640983   10.45417947    6.35208946
H     15.39816983    2.45199947    1.49550946
H     16.51839983    1.90637947    0.42850946
O     15.54781983    1.98911947    0.68060946
H     12.80201983   15.76301947   13.28906946
H     14.17838983   15.08188947   12.99416946
O     13.41815983   15.07660947   13.61008946
H      4.37476983    6.72340947    5.08594946
H      4.12106983    8.11952947    4.15070946
O      3.94260983    7.23474947    4.33739946
H      7.92102983    3.44018947    7.12619946
H      7.78286983    1.99368947    6.53278946
O      8.09412983    2.45958947    7.36650946
H      8.11829983    5.85398947    6.16195946
H      8.52174983    5.57128947    7.70924946
O      7.89494983    5.31606947    6.97577946
H     14.95144983   15.53020947    8.77212946
H     13.38343983   15.11352947    8.93161946
O     14.24492983   14.94889947    8.47594946
H      6.86608983    7.66965947    6.28174946
H      6.38995983    9.07317947    6.62529946
O      6.81324983    8.25121947    7.05471946
H      7.24089983   13.25714947    5.15952946
H      5.66987983   13.05211947    4.69828946
O      6.59005983   12.61273947    4.63543946
H     10.11651983    8.28671947    1.09636946
H     11.63927983    8.58393947    1.33130946
O     11.06015983    7.89680947    0.96312946
H      2.70503983    2.74395947    8.85453946
H      2.78703983    3.00808947   10.34192946
O      2.72851983    2.24611947    9.68312946
H     11.05685983   13.16164947    7.03014946
H     11.58972983   14.34038947    7.94119946
O     11.75187983   13.88773947    7.06159946
H     14.88597983   15.98265947    0.69486946
H     13.75020983   15.19936947   -0.23269054
O     14.06262983   15.35718947    0.71226946
H      8.24587983    6.88133947    0.21466946
H      7.97231983    8.42508947    0.18340946
O      8.22498983    7.76957947    0.88679946
H     13.60825983   11.25339947    4.72723946
H     12.79663983    9.97641947    5.33805946
O     12.82920983   10.96407947    5.22759946
H      8.93024983    7.69044947   12.39931946
H      7.72900983    6.53799947   12.33473946
O      7.96096983    7.53089947   12.57380946
H     15.68634983   11.83140947   15.87283946
H     14.97736983   10.33901947   15.83593946
O     15.61180983   11.00628947   15.36892946
H      9.20019983    2.04499947   15.47815946
H      8.99415983    2.73153947   14.02838946
O      9.50826983    2.12117947   14.57689946
H     12.38729983    3.19839947    2.26979946
H     12.66100983    3.11924947    3.72153946
O     12.47571983    3.80043947    3.05322946
H      6.68700983    7.10925947    3.93771946
H      8.11671983    7.28789947    4.60761946
O      7.28947983    6.75100947    4.66463946
H     -0.19924017   14.65648947    4.74409946
H      1.31571983   14.53122947    5.18387946
O      0.63879983   15.19094947    4.75475946
H     13.03685983    7.82302947    6.34343946
H     11.62392983    7.99760947    5.71625946
O     12.56210983    8.24730947    5.54780946
H      7.75994983   15.46206947    2.86991946
H      7.82522983   15.07537947    1.28064946
O      8.27125983   14.99008947    2.20943946
H     15.67229983   10.57129947    3.68976946
H     15.15798983   11.89655947    2.87528946
O     14.85772983   11.04956947    3.31915946
H      9.02680983   12.49910947    0.09947946
H      9.02443983   13.58231947    1.19039946
O      9.19899983   12.59230947    1.04506946
H     12.83422983   11.36427947    7.04518946
H     12.08339983   11.52491947    8.53640946
O     12.79312983   11.06016947    8.09064946
H      4.05948983   10.04100947    7.67641946
H      3.26402983    9.90013947    8.94999946
O      3.23338983    9.55451947    8.04889946
H     15.26402983   11.06568947   13.80129946
H     13.95935983   11.62440947   12.99894946
O     14.83238983   11.24657947   12.89757946
H      9.65929983    0.82345947    1.84235946
H     10.64726983    1.93659947    1.48478946
O      9.72508983    1.82413947    1.86438946
H      7.18738983    3.01603947   12.49466946
H      6.51229983    1.99670947   11.44793946
O      6.27117983    2.57587947   12.20187946
H      5.43268983    8.06326947   10.95609946
H      5.75489983    6.55914947   10.78803946
O      4.95901983    7.19997947   10.77676946
H      3.49267983   13.83776947    5.21642946
H      4.52526983   14.93262947    4.75691946
O      4.25135983   13.99781947    4.57281946
H      2.73211983    7.08828947   13.06834946
H      4.01784983    6.69697947   12.25200946
O      3.65646983    6.66678947   13.15527946
H      3.00386983   13.25175947    7.29729946
H      2.06256983   12.27975947    6.53534946
O      2.57564983   13.15283947    6.41448946
H      8.07370983    1.50363947    9.19329946
H      7.01162983    0.50593947    9.78827946
O      7.60773983    1.21917947   10.00533946
H     16.03623983    3.82137947   13.98722946
H     15.14250983    2.78985947   14.76774946
O     15.19853983    3.21673947   13.87747946
H      6.95336983   16.32989947   15.58021946
H      6.12599983   14.97523947   15.62301946
O      7.05592983   15.28679947   15.44083946
H      3.23709983    0.13725947   11.48213946
H      3.48165983    0.87714947   10.15654946
O      3.56680983    0.01934947   10.56928946
H      7.16922983   12.27917947    9.50971946
H      7.36209983   11.02933947   10.40812946
O      7.86877983   11.65242947    9.80054946
H      1.67529983   10.86313947    0.24875946
H      2.35875983   12.23606947    0.56642946
O      2.58149983   11.34397947    0.30657946
H     10.65983983    9.45869947   12.02631946
H     10.71255983    8.48786947   10.75605946
O     10.63750983    8.50984947   11.73729946
H     10.93654983    0.13295947   10.08311946
H     11.15321983    0.73897947    8.65753946
O     11.48321983   -0.00609053    9.27703946
H      2.10429983    5.66948947    9.20464946
H      1.12806983    4.49189947    8.72022946
O      1.42600983    5.06665947    9.51299946
H      4.33512983   10.40616947    3.31025946
H      3.02551983   10.08488947    4.10209946
O      4.04723983    9.97475947    4.08762946
H      3.53396983   10.65025947   11.12794946
H      2.43289983   11.47153947   10.55936946
O      3.28335983   10.99858947   10.29449946
H      6.33805983   13.25282947    2.69641946
H      4.96528983   13.92597947    2.83629946
O      5.65269983   13.72443947    2.16016946
H      4.01047983   10.06811947   13.65653946
H      4.57294983   11.30430947   13.21408946
O      4.28705983   10.47163947   12.85809946
H     13.59289983    3.75114947   14.13979946
H     12.57930983    4.81150947   14.34039946
O     12.58828983    3.83987947   14.27370946
H     12.20608983    2.02309947   12.32924946
H     11.11487983    1.72486947   13.47000946
O     11.60149983    1.26983947   12.76131946
H      8.78477983   14.73878947   12.53466946
H      7.78618983   14.45225947   13.67966946
O      8.13030983   14.06260947   12.85253946
H      4.66912983    6.75557947    2.47152946
H      4.67305983    7.14742947    0.98712946
O      4.44662983    6.37478947    1.62556946
H      4.04538983   11.24194947    1.10851946
H      5.26840983   11.94911947    1.98066946
O      4.93204983   11.12228947    1.58471946
H     15.01210983    5.04040947    5.12880946
H     15.86214983    5.05829947    6.42374946
O     15.33678983    5.62353947    5.81855946
H      7.56345983   11.71306947    3.66489946
H      7.68848983   11.38130947    2.06373946
O      7.65939983   10.96336947    3.00797946
H     14.87056983    5.50735947    9.87105946
H     13.38924983    5.91386947   10.26362946
O     13.94392983    5.20635947    9.86557946
H     12.00228983    7.11253947   15.14612946
H     13.54517983    6.87057947   15.00029946
O     12.62255983    6.52845947   14.71150946
H      2.93386983    2.35724947    3.12631946
H      2.00585983    3.59006947    3.13663946
O      2.18448983    2.76233947    3.66261946
H      9.67754983    8.81277947    8.88582946